 Gaussian 09, Revision D.01,
 Gaussian 09:  EM64L-G09RevD.01 24-Apr-2013

 ----------------------------------------------------------------------
 #p freq=intmodes m062x/def2tzvpp nosymm integral=ultrafinegrid scf=tig
 ht
 ----------------------------------------------------------------------

 ----------------
 049.xyz intmodes
 ----------------
 Symbolic Z-matrix:
 Charge =  2 Multiplicity = 1

                          Input orientation:
 ---------------------------------------------------------------------
 Center     Atomic      Atomic             Coordinates (Angstroms)
 Number     Number       Type             X           Y           Z
 ---------------------------------------------------------------------
      1          6           0       -0.085785   -3.054349    1.292998
      2          7           0       -1.001574   -4.121883    1.695777
      3          6           0       -1.737547   -4.021346    2.810825
      4          7           0       -1.289665   -3.268096    3.806682
      5          6           0        0.056766   -2.719453    3.849485
      6          6           0        0.782953   -2.633772    2.480549
      7          7           0       -2.894946   -4.659182    2.919601
      8          7           0        1.925513   -3.529321    2.673177
      9          7           0        0.953574   -3.573062    4.633665
     10          6           0        2.040433   -3.922003    3.937398
     11          7           0        3.062691   -4.584046    4.436047
     12          6           0       -2.138151   -2.755787    4.912797
     13          6           0       -1.218332   -1.774186    5.642499
     14          6           0       -0.214358   -1.361314    4.564071
     15          8           0        1.014945   -0.895752    4.996883
     16          8           0       -0.882676   -0.505267    3.719302
     17          6           0       -0.845811   -1.880071    0.654148
     18          8           0        0.038560   -1.107996   -0.137354
     19          6           0        0.508255    0.063156    0.364316
     20          8           0        0.439953    0.352877    1.545214
     21          7           0        1.073377    0.804957   -0.581158
     22          1           0        0.565759   -3.470523    0.524443
     23          1           0       -1.295700   -4.784094    0.993815
     24          1           0        1.139329   -1.614775    2.326065
     25          1           0       -3.373411   -4.725654    3.803498
     26          1           0       -3.321543   -5.113428    2.127803
     27          1           0        2.677851   -3.599830    2.005871
     28          1           0        0.974838   -3.518188    5.641409
     29          1           0        3.871776   -4.803780    3.876378
     30          1           0        3.067596   -4.894334    5.395084
     31          1           0       -2.464599   -3.570753    5.558149
     32          1           0       -3.003818   -2.254680    4.481539
     33          1           0       -0.708789   -2.247903    6.480794
     34          1           0       -1.761190   -0.908450    6.012122
     35          1           0        0.925848   -0.002165    5.350326
     36          1           0       -0.309110   -0.131751    3.017087
     37          1           0       -1.345015   -1.267340    1.405745
     38          1           0       -1.590002   -2.279874   -0.033003
     39          1           0        1.455436    1.700662   -0.327708
     40          1           0        1.025668    0.537315   -1.549442
 ---------------------------------------------------------------------

 SCF Done:  E(RM062X) =  -1076.23399716     A.U. after   17 cycles

 Alpha  occ. eigenvalues --  -19.89951 -19.87315 -19.85530 -19.82991 -15.06627
 Alpha  occ. eigenvalues --  -15.06532 -15.06268 -15.06245 -15.06190 -15.05705
 Alpha  occ. eigenvalues --  -14.98391 -10.96682 -10.96298 -10.92191 -10.90840
 Alpha  occ. eigenvalues --  -10.89998 -10.87182 -10.86215 -10.84171 -10.83598
 Alpha  occ. eigenvalues --  -10.78314  -1.47057  -1.45654  -1.43425  -1.42134
 Alpha  occ. eigenvalues --   -1.37171  -1.35980  -1.33211  -1.31825  -1.29673
 Alpha  occ. eigenvalues --   -1.28254  -1.24541  -1.16617  -1.14530  -1.11113
 Alpha  occ. eigenvalues --   -1.05162  -1.02789  -1.01716  -1.00532  -0.96411
 Alpha  occ. eigenvalues --   -0.95841  -0.93938  -0.92072  -0.91981  -0.90041
 Alpha  occ. eigenvalues --   -0.88851  -0.88169  -0.87040  -0.85334  -0.84870
 Alpha  occ. eigenvalues --   -0.84387  -0.83247  -0.82878  -0.82281  -0.80380
 Alpha  occ. eigenvalues --   -0.79812  -0.78814  -0.77851  -0.76687  -0.76113
 Alpha  occ. eigenvalues --   -0.75360  -0.74560  -0.73673  -0.73503  -0.71972
 Alpha  occ. eigenvalues --   -0.70543  -0.69244  -0.67616  -0.66739  -0.64808
 Alpha  occ. eigenvalues --   -0.63550  -0.63262  -0.62633  -0.61434  -0.60521
 Alpha  occ. eigenvalues --   -0.59826  -0.58935  -0.57598  -0.56470
 Alpha virt. eigenvalues --   -0.22642  -0.21548  -0.20036  -0.19324  -0.17632
 Alpha virt. eigenvalues --   -0.16416  -0.15978  -0.14812  -0.14128  -0.13319
 Alpha virt. eigenvalues --   -0.13043  -0.12754  -0.12503  -0.11391  -0.10675

 Mulliken charges:
               1
     1  C    0.032519
     2  N   -0.280242
     3  C    0.484483
     4  N   -0.078240
     5  C    0.003724
     6  C   -0.053440
     7  N   -0.324244
     8  N   -0.287537
     9  N   -0.244702
    10  C    0.489954
    11  N   -0.302283
    12  C   -0.209236
    13  C   -0.341442
    14  C    0.395002
    15  O   -0.349040
    16  O   -0.365468
    17  C   -0.187625
    18  O   -0.286802
    19  C    0.541937
    20  O   -0.450774
    21  N   -0.332933
    22  H    0.183161
    23  H    0.203645
    24  H    0.237973
    25  H    0.244571
    26  H    0.229276
    27  H    0.214349
    28  H    0.208698
    29  H    0.237806
    30  H    0.240444
    31  H    0.170089
    32  H    0.226223
    33  H    0.164213
    34  H    0.203710
    35  H    0.264476
    36  H    0.259402
    37  H    0.213975
    38  H    0.170530
    39  H    0.241292
    40  H    0.232553
 Sum of Mulliken charges =   2.00000

 Dipole moment (field-independent basis, Debye):
    X=              1.6060    Y=            -30.9473    Z=             27.9874  Tot=             41.7566
 Quadrupole moment (field-independent basis, Debye-Ang):
   XX=            -56.3652   YY=             23.3767   ZZ=             25.4759
   XY=              1.9855   XZ=              5.4788   YZ=           -108.4895

  Exact polarizability: 164.508   6.825 154.805  -4.399  -9.260 175.120
 Approx polarizability: 196.706   4.838 182.175  -6.121   0.005 209.409

                      1                      2                      3
                      A                      A                      A
 Frequencies --     44.8627                66.6803                75.0870
 Red. masses --      5.1144                 5.0890                 5.7950
 Frc consts  --      0.0061                 0.0133                 0.0192
 IR Inten    --      1.8852                 1.3430                 0.2286

                      4                      5                      6
                      A                      A                      A
 Frequencies --     86.6066               111.7806               118.1569
 Red. masses --      5.9135                 5.7729                 5.1430
 Frc consts  --      0.0261                 0.0425                 0.0423
 IR Inten    --     15.3801                 0.4343                 3.1109

                      7                      8                      9
                      A                      A                      A
 Frequencies --    134.7934               145.9298               157.8519
 Red. masses --      5.4871                 4.0445                 4.0201
 Frc consts  --      0.0587                 0.0507                 0.0590
 IR Inten    --      3.2001                 1.5927                11.7433

                     10                     11                     12
                      A                      A                      A
 Frequencies --    185.0457               205.1180               254.4094
 Red. masses --      4.6227                 2.9994                 2.3916
 Frc consts  --      0.0933                 0.0744                 0.0912
 IR Inten    --      8.9313                 4.6381                15.6712

                     13                     14                     15
                      A                      A                      A
 Frequencies --    263.5392               287.1609               325.2177
 Red. masses --      3.5981                 2.0734                 4.7140
 Frc consts  --      0.1472                 0.1007                 0.2938
 IR Inten    --      3.8344                 3.0085                10.7637

                     16                     17                     18
                      A                      A                      A
 Frequencies --    341.5806               347.7500               361.0595
 Red. masses --      3.7193                 2.4726                 2.7955
 Frc consts  --      0.2557                 0.1762                 0.2147
 IR Inten    --      4.1245                60.8211                 8.7154

                     19                     20                     21
                      A                      A                      A
 Frequencies --    370.8748               389.8479               412.0690
 Red. masses --      1.6475                 2.5696                 3.2390
 Frc consts  --      0.1335                 0.2301                 0.3240
 IR Inten    --     59.2192                21.0040                12.4301

                     22                     23                     24
                      A                      A                      A
 Frequencies --    437.9852               441.7853               444.0701
 Red. masses --      1.2006                 1.1938                 2.2959
 Frc consts  --      0.1357                 0.1373                 0.2667
 IR Inten    --     17.7611               168.1410                13.8200

                     25                     26                     27
                      A                      A                      A
 Frequencies --    447.6931               453.0642               461.4436
 Red. masses --      1.3710                 2.6596                 1.2380
 Frc consts  --      0.1619                 0.3217                 0.1553
 IR Inten    --    112.6692                44.2829                99.0868

                     28                     29                     30
                      A                      A                      A
 Frequencies --    493.8082               500.9031               525.0778
 Red. masses --      3.3687                 1.2609                 1.4619
 Frc consts  --      0.4840                 0.1864                 0.2375
 IR Inten    --     45.7824               276.5335                 6.3503

                     31                     32                     33
                      A                      A                      A
 Frequencies --    534.0526               539.1013               569.1830
 Red. masses --      2.4285                 2.8898                 2.3792
 Frc consts  --      0.4081                 0.4948                 0.4541
 IR Inten    --     16.0854                 1.6989                 9.6804

                     34                     35                     36
                      A                      A                      A
 Frequencies --    576.1219               588.0855               603.6945
 Red. masses --      1.6329                 1.0639                 3.1354
 Frc consts  --      0.3193                 0.2168                 0.6733
 IR Inten    --     58.9459                 2.4236                15.0407

                     37                     38                     39
                      A                      A                      A
 Frequencies --    644.7065               668.5341               674.4770
 Red. masses --      3.9108                 4.4039                 3.8720
 Frc consts  --      0.9577                 1.1597                 1.0378
 IR Inten    --     18.5635                 4.3551                18.9428

                     40                     41                     42
                      A                      A                      A
 Frequencies --    725.6987               733.2381               742.5522
 Red. masses --      4.6052                 8.5102                 3.2837
 Frc consts  --      1.4289                 2.6957                 1.0668
 IR Inten    --     29.3377                 8.8129                41.7132

                     43                     44                     45
                      A                      A                      A
 Frequencies --    753.6094               781.2172               799.9246
 Red. masses --      1.3536                 3.8665                 9.0925
 Frc consts  --      0.4529                 1.3903                 3.4279
 IR Inten    --     92.7681                 1.5074                17.2256

                     46                     47                     48
                      A                      A                      A
 Frequencies --    828.5515               851.5129               901.5265
 Red. masses --      3.4070                 2.0639                 2.9021
 Frc consts  --      1.3780                 0.8817                 1.3897
 IR Inten    --      7.5335                 1.7717                15.2656

                     49                     50                     51
                      A                      A                      A
 Frequencies --    929.6374               972.0289               979.1721
 Red. masses --      2.9090                 2.7085                 2.7680
 Frc consts  --      1.4812                 1.5078                 1.5636
 IR Inten    --      4.2286                19.6533                20.2061

                     52                     53                     54
                      A                      A                      A
 Frequencies --   1004.7404              1026.1303              1038.3964
 Red. masses --      2.6733                 2.3653                 2.1229
 Frc consts  --      1.5900                 1.4674                 1.3486
 IR Inten    --     13.7113                 1.9200                 2.3865

                     55                     56                     57
                      A                      A                      A
 Frequencies --   1043.6644              1075.3199              1095.3720
 Red. masses --      2.0483                 1.9437                 2.1189
 Frc consts  --      1.3145                 1.3242                 1.4979
 IR Inten    --      4.6727                16.7683                23.8098

                     58                     59                     60
                      A                      A                      A
 Frequencies --   1101.1530              1119.9502              1126.4701
 Red. masses --      2.7226                 2.6058                 2.0196
 Frc consts  --      1.9450                 1.9257                 1.5099
 IR Inten    --     45.4245                36.3333                 5.1816

                     61                     62                     63
                      A                      A                      A
 Frequencies --   1138.1866              1142.5712              1162.8123
 Red. masses --      2.3829                 2.8700                 3.2096
 Frc consts  --      1.8188                 2.2075                 2.5570
 IR Inten    --      1.6757                93.9624               158.8960

                     64                     65                     66
                      A                      A                      A
 Frequencies --   1164.5016              1188.1438              1199.5358
 Red. masses --      2.8589                 2.7440                 1.5391
 Frc consts  --      2.2842                 2.2823                 1.3048
 IR Inten    --      3.4391               114.6473                50.6010

                     67                     68                     69
                      A                      A                      A
 Frequencies --   1241.2314              1250.0234              1262.0821
 Red. masses --      1.9633                 2.9225                 2.6057
 Frc consts  --      1.7821                 2.6906                 2.4454
 IR Inten    --     20.7686                 6.5418                71.9842

                     70                     71                     72
                      A                      A                      A
 Frequencies --   1281.0650              1296.9088              1313.5540
 Red. masses --      2.1035                 1.3044                 1.4392
 Frc consts  --      2.0340                 1.2926                 1.4631
 IR Inten    --     31.8731                 0.6449                 2.3367

                     73                     74                     75
                      A                      A                      A
 Frequencies --   1338.9630              1348.2802              1365.8412
 Red. masses --      1.4026                 1.3816                 1.6578
 Frc consts  --      1.4815                 1.4798                 1.8221
 IR Inten    --     10.0840                18.3072               153.5152

                     76                     77                     78
                      A                      A                      A
 Frequencies --   1375.4800              1385.5627              1396.0393
 Red. masses --      1.4465                 1.3760                 1.6037
 Frc consts  --      1.6124                 1.5564                 1.8415
 IR Inten    --     26.1440                63.0329                13.0231

                     79                     80                     81
                      A                      A                      A
 Frequencies --   1401.9086              1421.2794              1431.9865
 Red. masses --      1.7850                 1.6147                 1.6411
 Frc consts  --      2.0669                 1.9218                 1.9827
 IR Inten    --    184.0000                 8.3642                10.9407

                     82                     83                     84
                      A                      A                      A
 Frequencies --   1444.8623              1447.6683              1459.3338
 Red. masses --      1.7245                 1.6725                 1.7627
 Frc consts  --      2.1211                 2.0652                 2.2118
 IR Inten    --     59.2802                11.8270               125.2927

                     85                     86                     87
                      A                      A                      A
 Frequencies --   1497.5364              1510.7370              1521.7327
 Red. masses --      1.1018                 1.1179                 1.1029
 Frc consts  --      1.4558                 1.5032                 1.5047
 IR Inten    --     13.6574                19.6733                18.7305

                     88                     89                     90
                      A                      A                      A
 Frequencies --   1597.3883              1621.1192              1626.2741
 Red. masses --      5.0395                 1.4024                 1.4016
 Frc consts  --      7.5764                 2.1715                 2.1840
 IR Inten    --     49.6878               196.0527                26.1540

                     91                     92                     93
                      A                      A                      A
 Frequencies --   1644.3513              1665.1871              1711.1128
 Red. masses --      1.2103                 4.8992                 3.1923
 Frc consts  --      1.9282                 8.0039                 5.5070
 IR Inten    --      3.3363               409.4505               685.5268

                     94                     95                     96
                      A                      A                      A
 Frequencies --   1760.4756              1809.6551              3087.0275
 Red. masses --      5.1080                 8.7883                 1.0583
 Frc consts  --      9.3274                16.9569                 5.9418
 IR Inten    --    811.5813               771.9818                 5.5748

                     97                     98                     99
                      A                      A                      A
 Frequencies --   3095.2716              3109.1171              3112.5456
 Red. masses --      1.0597                 1.0658                 1.0862
 Frc consts  --      5.9816                 6.0702                 6.2001
 IR Inten    --      7.1709                 6.6260                 3.4150

                    100                    101                    102
                      A                      A                      A
 Frequencies --   3116.6085              3143.1091              3152.4430
 Red. masses --      1.0864                 1.1092                 1.1095
 Frc consts  --      6.2173                 6.4565                 6.4962
 IR Inten    --     12.7597                 1.1470                 0.0441

                    103                    104                    105
                      A                      A                      A
 Frequencies --   3175.7949              3483.1262              3592.8149
 Red. masses --      1.1048                 1.0711                 1.0480
 Frc consts  --      6.5648                 7.6562                 7.9704
 IR Inten    --      1.5940               918.4861               315.0946

                    106                    107                    108
                      A                      A                      A
 Frequencies --   3596.9310              3614.6877              3626.5161
 Red. masses --      1.0480                 1.0460                 1.0786
 Frc consts  --      7.9890                 8.0523                 8.3578
 IR Inten    --    188.7733               165.1592               150.7580

                    109                    110                    111
                      A                      A                      A
 Frequencies --   3628.8491              3644.9986              3706.8810
 Red. masses --      1.0788                 1.0818                 1.1071
 Frc consts  --      8.3699                 8.4681                 8.9632
 IR Inten    --    133.0963               115.8845               139.0760

                    112                    113                    114
                      A                      A                      A
 Frequencies --   3712.5140              3743.5271              3835.8022
 Red. masses --      1.1068                 1.1081                 1.0664
 Frc consts  --      8.9879                 9.1497                 9.2448
 IR Inten    --    130.2707               127.7480               163.4648

 - Thermochemistry -
 -------------------
 Temperature   298.150 Kelvin.  Pressure   1.00000 Atm.
 Atom     1 has atomic number  6 and mass  12.00000

 Molecular mass:   301.14985 amu.
 Principal axes and moments of inertia in atomic units:
                           1         2         3
     Eigenvalues --  4398.489676608.083746987.38890
           X           -0.10415   0.93523  -0.33838
           Y           -0.62235   0.20410   0.75566
           Z            0.77578   0.28929   0.56078
 This molecule is an asymmetric top.
 Rotational symmetry number  1.
 Warning -- assumption of classical behavior for rotation
           may cause significant error
 Rotational temperatures (Kelvin)      0.01969     0.01311     0.01240
 Rotational constants (GHZ):           0.41031     0.27311     0.25829
 Zero-point vibrational energy     888353.0 (Joules/Mol)
                                  212.32147 (Kcal/Mol)
 Warning -- explicit consideration of  36 degrees of freedom as
           vibrations may cause significant error
 Vibrational temperatures:     64.55    95.94   108.03   124.61   160.83
          (Kelvin)            170.00   193.94   209.96   227.11   266.24
                              295.12   366.04   379.17   413.16   467.92
                              491.46   500.33   519.48   533.61   560.90
                              592.87   630.16   635.63   638.92   644.13
                              651.86   663.91   710.48   720.69   755.47
                              768.38   775.65   818.93   828.91   846.12
                              868.58   927.59   961.87   970.42  1044.12
                             1054.96  1068.37  1084.27  1124.00  1150.91
                             1192.10  1225.14  1297.09  1337.54  1398.53
                             1408.81  1445.60  1476.37  1494.02  1501.60
                             1547.14  1575.99  1584.31  1611.36  1620.74
                             1637.59  1643.90  1673.03  1675.46  1709.47
                             1725.86  1785.85  1798.50  1815.85  1843.16
                             1865.96  1889.91  1926.47  1939.87  1965.14
                             1979.01  1993.51  2008.59  2017.03  2044.90
                             2060.31  2078.83  2082.87  2099.65  2154.62
                             2173.61  2189.43  2298.28  2332.43  2339.84
                             2365.85  2395.83  2461.91  2532.93  2603.69
                             4441.54  4453.40  4473.32  4478.25  4484.10
                             4522.23  4535.66  4569.25  5011.44  5169.25
                             5175.18  5200.72  5217.74  5221.10  5244.33
                             5333.37  5341.47  5386.09  5518.86

 Zero-point correction=                           0.338356 (Hartree/Particle)
 Thermal correction to Energy=                    0.357848
 Thermal correction to Enthalpy=                  0.358792
 Thermal correction to Gibbs Free Energy=         0.292364
 Sum of electronic and zero-point Energies=          -1075.895641
 Sum of electronic and thermal Energies=             -1075.876150
 Sum of electronic and thermal Enthalpies=           -1075.875205
 Sum of electronic and thermal Free Energies=        -1075.941633

                     E (Thermal)             CV                S
                      KCal/Mol        Cal/Mol-Kelvin    Cal/Mol-Kelvin
 Total                  224.553             78.582            139.809
 Electronic               0.000              0.000              0.000
 Translational            0.889              2.981             43.004
 Rotational               0.889              2.981             33.673
 Vibrational            222.775             72.620             63.132
 Vibration     1          0.595              1.979              5.032
 Vibration     2          0.598              1.970              4.249
 Vibration     3          0.599              1.966              4.015
 Vibration     4          0.601              1.959              3.735
 Vibration     5          0.607              1.940              3.238
 Vibration     6          0.608              1.934              3.130
 Vibration     7          0.613              1.919              2.876
 Vibration     8          0.617              1.907              2.725
 Vibration     9          0.621              1.894              2.575
 Vibration    10          0.631              1.860              2.277
 Vibration    11          0.640              1.833              2.087
 Vibration    12          0.665              1.755              1.700
 Vibration    13          0.670              1.740              1.638
 Vibration    14          0.684              1.698              1.491
 Vibration    15          0.709              1.625              1.284
 Vibration    16          0.721              1.592              1.205
 Vibration    17          0.725              1.580              1.176
 Vibration    18          0.735              1.552              1.118
 Vibration    19          0.743              1.532              1.076
 Vibration    20          0.758              1.492              1.001
 Vibration    21          0.776              1.444              0.919
 Vibration    22          0.798              1.387              0.833
 Vibration    23          0.802              1.379              0.821
 Vibration    24          0.804              1.374              0.814
 Vibration    25          0.807              1.366              0.803
 Vibration    26          0.812              1.354              0.787
 Vibration    27          0.819              1.336              0.762
 Vibration    28          0.849              1.264              0.674
 Vibration    29          0.856              1.248              0.656
 Vibration    30          0.880              1.194              0.598
 Vibration    31          0.889              1.175              0.578
 Vibration    32          0.894              1.164              0.567
 Vibration    33          0.925              1.098              0.506
 Vibration    34          0.933              1.083              0.493
 Vibration    35          0.945              1.057              0.471
 Vibration    36          0.962              1.024              0.443

 Normal termination of Gaussian 09 at Mon May 14 09:00:54 2018.
