 Gaussian 09, Revision D.01,
 Gaussian 09:  EM64L-G09RevD.01 24-Apr-2013

 ------------------------------------------------------------
 # freq=intmodes wb97xd nosymm def2svp integral=ultrafinegrid
 ------------------------------------------------------------

 -----
 Title
 -----
 Symbolic Z-matrix:
 Charge =  2 Multiplicity = 1

                          Input orientation:
 ---------------------------------------------------------------------
 Center     Atomic      Atomic             Coordinates (Angstroms)
 Number     Number       Type             X           Y           Z
 ---------------------------------------------------------------------
      1          6           0       -1.081351    0.293609    2.030640
      2          7           0       -1.841600   -0.843054    1.940737
      3          6           0       -1.712145    1.523952    1.909856
      4          6           0       -1.194711   -2.158640    2.054587
      5          6           0       -3.180241   -0.785192    1.739640
      6          6           0        0.375381    0.168073    2.279907
      7          6           0       -3.099863    1.603711    1.722282
      8          1           0       -1.136472    2.443968    2.003732
      9          6           0       -0.073767   -2.104170    3.057886
     10          1           0       -1.944440   -2.893909    2.368414
     11          1           0       -0.812296   -2.456151    1.070417
     12          6           0       -3.839651    0.421972    1.649975
     13          1           0       -3.702324   -1.741794    1.692900
     14          7           0        0.869289   -1.038549    2.693391
     15          6           0        1.252718    1.234248    2.146377
     16          1           0       -3.594357    2.574919    1.717453
     17          1           0        0.458629   -3.062496    3.059652
     18          1           0       -0.444036   -1.908255    4.076924
     19          1           0       -4.923125    0.427913    1.527531
     20          6           0        2.194730   -1.223563    2.917718
     21          6           0        2.616058    1.081591    2.448468
     22          1           0        0.888899    2.209750    1.824342
     23          6           0        3.086509   -0.178790    2.824991
     24          1           0        2.495815   -2.221669    3.237996
     25          1           0        3.270100    1.953041    2.461490
     26          1           0        4.138694   -0.353666    3.052112
     27          7           0       -0.439952   -3.015103   -1.126503
     28          6           0       -0.222323   -1.663453   -1.166577
     29         15           0       -2.117405   -3.455705   -1.368573
     30         15           0        1.007604   -3.938950   -0.767115
     31          6           0       -1.406697   -0.935783   -1.341054
     32          6           0        1.111282   -1.325813   -0.896524
     33          7           0       -2.503659   -1.743211   -1.440659
     34          7           0        1.887452   -2.422186   -0.645919
     35          6           0       -1.738799    0.424469   -1.365807
     36          6           0        1.829565   -0.128747   -0.803844
     37         15           0       -4.002979   -0.853547   -1.558447
     38         15           0        3.547171   -2.020459   -0.274784
     39          7           0       -3.084079    0.629181   -1.474546
     40          6           0       -1.025576    1.623573   -1.225398
     41          7           0        3.141641   -0.334398   -0.486825
     42          6           0        1.504390    1.234904   -0.874843
     43         15           0       -3.531540    2.316173   -1.391284
     44          7           0       -1.838762    2.719905   -1.226308
     45          6           0        0.320407    1.961407   -1.047751
     46         15           0        4.040901    1.150395   -0.292600
     47          7           0        2.575647    2.042656   -0.632069
     48         15           0       -0.978102    4.229127   -1.005132
     49          7           0        0.505776    3.307955   -0.893561
     50         15           0        2.174704    3.747861   -0.596151
 ---------------------------------------------------------------------

 SCF Done:  E(RwB97XD) =  -4044.94374680     A.U. after   23 cycles

 Alpha  occ. eigenvalues --  -77.47179 -77.47147 -77.47018 -77.46976 -77.46407
 Alpha  occ. eigenvalues --  -77.46346 -77.46077 -77.45958 -14.81188 -14.80856
 Alpha  occ. eigenvalues --  -14.74403 -14.74216 -14.74198 -14.74175 -14.74132
 Alpha  occ. eigenvalues --  -14.73916 -14.73910 -14.73893 -10.64951 -10.64931
 Alpha  occ. eigenvalues --  -10.62884 -10.62612 -10.61841 -10.61590 -10.58913
 Alpha  occ. eigenvalues --  -10.58847 -10.58732 -10.58726 -10.58505 -10.58468
 Alpha  occ. eigenvalues --  -10.58380 -10.58373 -10.58273 -10.58237 -10.58204
 Alpha  occ. eigenvalues --  -10.57903 -10.57889 -10.57690  -6.92559  -6.92531
 Alpha  occ. eigenvalues --   -6.92403  -6.92369  -6.91830  -6.91766  -6.91506
 Alpha  occ. eigenvalues --   -6.91398  -5.07955  -5.07930  -5.07802  -5.07773
 Alpha  occ. eigenvalues --   -5.07518  -5.07493  -5.07364  -5.07336  -5.07249
 Alpha  occ. eigenvalues --   -5.07187  -5.07133  -5.07098  -5.06970  -5.06925
 Alpha  occ. eigenvalues --   -5.06922  -5.06817  -5.06813  -5.06757  -5.06487
 Alpha  occ. eigenvalues --   -5.06378  -5.06345  -5.06274  -5.06025  -5.05916
 Alpha  occ. eigenvalues --   -1.40063  -1.36717  -1.35721  -1.34063  -1.33864
 Alpha  occ. eigenvalues --   -1.29513  -1.29492  -1.23455  -1.23407  -1.21665
 Alpha  occ. eigenvalues --   -1.19337  -1.18896  -1.18643  -1.13152  -1.12998
 Alpha  occ. eigenvalues --   -1.12702  -1.08774  -1.08669  -1.04815  -1.04139
 Alpha  occ. eigenvalues --   -1.04089  -1.02175  -1.01246  -1.01208  -1.00029
 Alpha  occ. eigenvalues --   -0.98875  -0.98737  -0.95126  -0.93044  -0.92957
 Alpha  occ. eigenvalues --   -0.92911  -0.92009  -0.89445  -0.89386  -0.88837
 Alpha  occ. eigenvalues --   -0.88569  -0.88323  -0.88112  -0.86272  -0.85605
 Alpha  occ. eigenvalues --   -0.85100  -0.83177  -0.82751  -0.82296  -0.82110
 Alpha  occ. eigenvalues --   -0.81346  -0.81119  -0.80487  -0.79683  -0.78507
 Alpha  occ. eigenvalues --   -0.77795  -0.76822  -0.76788  -0.76743  -0.76514
 Alpha  occ. eigenvalues --   -0.76188  -0.76032  -0.75397  -0.75351  -0.73271
 Alpha  occ. eigenvalues --   -0.73152  -0.72866  -0.72633  -0.71603  -0.71399
 Alpha  occ. eigenvalues --   -0.71191  -0.70894  -0.67227  -0.66681  -0.66449
 Alpha  occ. eigenvalues --   -0.64503  -0.64121  -0.64018  -0.63308  -0.63196
 Alpha  occ. eigenvalues --   -0.62990  -0.62852  -0.62612  -0.62457  -0.62335
 Alpha  occ. eigenvalues --   -0.61899  -0.61214  -0.60348  -0.57677  -0.56487
 Alpha  occ. eigenvalues --   -0.47802  -0.46880  -0.46734  -0.45381  -0.44459
 Alpha virt. eigenvalues --   -0.29437  -0.24148  -0.23851  -0.21784  -0.21692
 Alpha virt. eigenvalues --   -0.21390  -0.21353  -0.20836  -0.18405  -0.15826
 Alpha virt. eigenvalues --   -0.14840  -0.14707  -0.14479  -0.14336  -0.13554

 Mulliken charges:
               1
     1  C    0.136357
     2  N   -0.228728
     3  C   -0.036464
     4  C    0.084109
     5  C    0.112115
     6  C    0.156107
     7  C    0.058967
     8  H    0.078159
     9  C    0.083590
    10  H    0.119626
    11  H    0.113933
    12  C   -0.002415
    13  H    0.113788
    14  N   -0.237672
    15  C   -0.029492
    16  H    0.106583
    17  H    0.118320
    18  H    0.130225
    19  H    0.111035
    20  C    0.116435
    21  C    0.064127
    22  H    0.061582
    23  C   -0.011142
    24  H    0.114774
    25  H    0.105602
    26  H    0.111772
    27  N   -0.552882
    28  C    0.142817
    29  P    0.444233
    30  P    0.441700
    31  C    0.127695
    32  C    0.106242
    33  N   -0.550422
    34  N   -0.546334
    35  C    0.176874
    36  C    0.187774
    37  P    0.465821
    38  P    0.462238
    39  N   -0.550802
    40  C    0.138740
    41  N   -0.555030
    42  C    0.142210
    43  P    0.474947
    44  N   -0.557482
    45  C    0.163943
    46  P    0.474967
    47  N   -0.561059
    48  P    0.459948
    49  N   -0.546004
    50  P    0.458572
 Sum of Mulliken charges =   2.00000

 Dipole moment (field-independent basis, Debye):
    X=             -2.7709    Y=             -1.7811    Z=             12.0918  Tot=             12.5324
 Quadrupole moment (field-independent basis, Debye-Ang):
   XX=           -181.8028   YY=           -209.3222   ZZ=           -221.0199
   XY=             -0.5655   XZ=              6.6582   YZ=            -12.7711

  Exact polarizability: 580.549   0.025 552.403  45.051 -14.781 349.335
 Approx polarizability: 834.066   1.501 801.440  72.034 -14.205 435.753

                      1                      2                      3
                      A                      A                      A
 Frequencies --     34.1375                36.1098                51.0604
 Red. masses --      8.4306                 6.7696                 9.8502
 Frc consts  --      0.0058                 0.0052                 0.0151
 IR Inten    --      3.2456                 1.1628                 1.2060

                      4                      5                      6
                      A                      A                      A
 Frequencies --     73.6132                78.4098                91.7797
 Red. masses --     14.7517                 6.7609                 9.5879
 Frc consts  --      0.0471                 0.0245                 0.0476
 IR Inten    --      1.2344                 4.8524                 0.6546

                      7                      8                      9
                      A                      A                      A
 Frequencies --     95.8287               121.3294               128.0521
 Red. masses --     13.1589                 4.9401                 9.0057
 Frc consts  --      0.0712                 0.0428                 0.0870
 IR Inten    --      6.1777                 0.2650                 9.2034

                     10                     11                     12
                      A                      A                      A
 Frequencies --    135.7887               140.1994               146.0762
 Red. masses --     19.5048                 4.8301                22.8214
 Frc consts  --      0.2119                 0.0559                 0.2869
 IR Inten    --      1.6190                 3.7418                 1.7068

                     13                     14                     15
                      A                      A                      A
 Frequencies --    156.2180               160.0405               201.0976
 Red. masses --     17.0402                 5.6524                 3.2810
 Frc consts  --      0.2450                 0.0853                 0.0782
 IR Inten    --      1.6075                 0.5241                 0.6669

                     16                     17                     18
                      A                      A                      A
 Frequencies --    224.8052               235.9440               242.1953
 Red. masses --      3.4529                12.1337                11.7476
 Frc consts  --      0.1028                 0.3980                 0.4060
 IR Inten    --     12.7314                 0.4613                 0.3795

                     19                     20                     21
                      A                      A                      A
 Frequencies --    256.1823               256.3325               281.3781
 Red. masses --     18.0272                17.8477                16.8393
 Frc consts  --      0.6971                 0.6909                 0.7855
 IR Inten    --      0.0123                 0.7313                 0.5514

                     22                     23                     24
                      A                      A                      A
 Frequencies --    282.2818               285.5666               309.7860
 Red. masses --      5.4444                13.8891                13.8123
 Frc consts  --      0.2556                 0.6673                 0.7810
 IR Inten    --      0.6177                 1.1262                 0.1640

                     25                     26                     27
                      A                      A                      A
 Frequencies --    311.7774               319.3411               325.9230
 Red. masses --     13.7020                11.5316                 2.8406
 Frc consts  --      0.7847                 0.6929                 0.1778
 IR Inten    --      0.7710                 0.2825                 0.2801

                     28                     29                     30
                      A                      A                      A
 Frequencies --    334.3741               335.6705               340.0107
 Red. masses --     23.7483                25.4675                13.5077
 Frc consts  --      1.5644                 1.6907                 0.9201
 IR Inten    --      0.0547                 0.9059                 0.2371

                     31                     32                     33
                      A                      A                      A
 Frequencies --    341.5330               359.7033               392.2757
 Red. masses --     11.0662                21.7898                29.0758
 Frc consts  --      0.7605                 1.6611                 2.6361
 IR Inten    --      0.2485                 2.0882                 0.5068

                     34                     35                     36
                      A                      A                      A
 Frequencies --    392.6207               400.6277               403.1977
 Red. masses --     28.8328                 5.2021                29.2476
 Frc consts  --      2.6187                 0.4919                 2.8014
 IR Inten    --      0.0842                 0.0988                 0.0129

                     37                     38                     39
                      A                      A                      A
 Frequencies --    410.5750               414.9470               416.0958
 Red. masses --     26.3720                20.5368                 3.3537
 Frc consts  --      2.6193                 2.0834                 0.3421
 IR Inten    --      0.0541                 0.2069                 1.5223

                     40                     41                     42
                      A                      A                      A
 Frequencies --    428.9749               449.0413               466.7056
 Red. masses --     28.5135                 3.0813                 3.9974
 Frc consts  --      3.0915                 0.3661                 0.5130
 IR Inten    --      0.0192                 1.2597                 1.6863

                     43                     44                     45
                      A                      A                      A
 Frequencies --    477.8997               509.7039               538.1888
 Red. masses --      3.8100                 4.1929                13.2033
 Frc consts  --      0.5127                 0.6418                 2.2532
 IR Inten    --      8.9074                 0.2373                22.9119

                     46                     47                     48
                      A                      A                      A
 Frequencies --    542.8134               545.3844               559.3586
 Red. masses --     13.1721                13.5607                 4.9692
 Frc consts  --      2.2867                 2.3765                 0.9161
 IR Inten    --      0.8337                 2.2232                 4.2980

                     49                     50                     51
                      A                      A                      A
 Frequencies --    581.0111               588.4465               608.9906
 Red. masses --      3.3689                12.5932                12.5985
 Frc consts  --      0.6700                 2.5692                 2.7529
 IR Inten    --      0.4814                 0.6183                 0.3018

                     52                     53                     54
                      A                      A                      A
 Frequencies --    613.8521               618.9324               651.7175
 Red. masses --      8.4036                 3.0492                17.6894
 Frc consts  --      1.8657                 0.6882                 4.4267
 IR Inten    --      0.0703                 0.5866                 1.2585

                     55                     56                     57
                      A                      A                      A
 Frequencies --    651.9519               660.6819               661.6342
 Red. masses --     17.8415                 6.9956                15.7585
 Frc consts  --      4.4680                 1.7991                 4.0644
 IR Inten    --      1.2123                 1.9741                22.0187

                     58                     59                     60
                      A                      A                      A
 Frequencies --    666.0369               666.7417               670.1210
 Red. masses --     16.2721                15.1241                12.3953
 Frc consts  --      4.2529                 3.9613                 3.2795
 IR Inten    --     11.0007                 6.2614                 1.2108

                     61                     62                     63
                      A                      A                      A
 Frequencies --    682.6991               726.5292               740.6149
 Red. masses --     12.3637                 3.7307                13.8596
 Frc consts  --      3.3951                 1.1603                 4.4790
 IR Inten    --      0.3448                14.1959                 2.4258

                     64                     65                     66
                      A                      A                      A
 Frequencies --    743.3081               749.4601               757.4202
 Red. masses --     13.4010                 5.1247                 2.0237
 Frc consts  --      4.3624                 1.6960                 0.6840
 IR Inten    --      0.0379                 1.3199                 4.8575

                     67                     68                     69
                      A                      A                      A
 Frequencies --    781.2314               792.7910               797.3603
 Red. masses --      1.3923                13.2951                 2.2198
 Frc consts  --      0.5007                 4.9233                 0.8315
 IR Inten    --     19.4979                 0.6932                 7.6929

                     70                     71                     72
                      A                      A                      A
 Frequencies --    803.0421               817.9445               853.7804
 Red. masses --      1.8628                 4.1315                15.1489
 Frc consts  --      0.7078                 1.6286                 6.5061
 IR Inten    --     21.6976                11.1565                 0.2073

                     73                     74                     75
                      A                      A                      A
 Frequencies --    879.1120               885.1967               892.9628
 Red. masses --     14.6239                14.1006                12.5301
 Frc consts  --      6.6589                 6.5098                 5.8867
 IR Inten    --     54.9946                44.9160                 1.2752

                     76                     77                     78
                      A                      A                      A
 Frequencies --    895.9536               900.0325               902.4858
 Red. masses --      1.5499                10.6290                 1.6707
 Frc consts  --      0.7330                 5.0729                 0.8017
 IR Inten    --     11.5241                 2.9215                 3.5416

                     79                     80                     81
                      A                      A                      A
 Frequencies --    905.3703               914.8707               932.8348
 Red. masses --      9.9416                 5.9341                 9.2230
 Frc consts  --      4.8013                 2.9264                 4.7286
 IR Inten    --      5.2701                 2.2992                 1.5129

                     82                     83                     84
                      A                      A                      A
 Frequencies --    949.9429               977.6760               987.8487
 Red. masses --      2.2602                 1.4267                 1.3615
 Frc consts  --      1.2017                 0.8035                 0.7828
 IR Inten    --      2.0486                16.2126                10.2286

                     85                     86                     87
                      A                      A                      A
 Frequencies --   1009.2209              1014.3692              1025.3468
 Red. masses --     13.0016                 1.4180                 1.4207
 Frc consts  --      7.8022                 0.8596                 0.8800
 IR Inten    --      0.0696                18.4368                28.6324

                     88                     89                     90
                      A                      A                      A
 Frequencies --   1028.3721              1054.9750              1086.9346
 Red. masses --      1.8781                 4.6643                 1.9350
 Frc consts  --      1.1702                 3.0586                 1.3469
 IR Inten    --      0.4844                 7.7879                 0.5356

                     91                     92                     93
                      A                      A                      A
 Frequencies --   1099.5768              1109.1434              1133.5858
 Red. masses --      2.0954                 2.0959                 1.9639
 Frc consts  --      1.4927                 1.5191                 1.4869
 IR Inten    --      8.8972                 6.3911                 0.3700

                     94                     95                     96
                      A                      A                      A
 Frequencies --   1139.2610              1140.4197              1162.8855
 Red. masses --     12.6816                12.9448                 1.3544
 Frc consts  --      9.6977                 9.9192                 1.0791
 IR Inten    --      0.0553                 0.9648                12.1060

                     97                     98                     99
                      A                      A                      A
 Frequencies --   1189.2508              1199.8163              1220.8697
 Red. masses --      1.1381                 1.1515                 2.0076
 Frc consts  --      0.9483                 0.9766                 1.7630
 IR Inten    --      1.7167                 3.4204                20.1221

                    100                    101                    102
                      A                      A                      A
 Frequencies --   1253.4597              1261.1565              1267.1378
 Red. masses --      2.6577                 2.3233                 2.9685
 Frc consts  --      2.4603                 2.1772                 2.8083
 IR Inten    --     30.2297                18.9932                 3.2390

                    103                    104                    105
                      A                      A                      A
 Frequencies --   1268.4160              1270.4833              1327.2548
 Red. masses --      1.5728                 5.7545                 2.0536
 Frc consts  --      1.4909                 5.4727                 2.1314
 IR Inten    --     53.0635                 6.6938                41.4534

                    106                    107                    108
                      A                      A                      A
 Frequencies --   1330.9770              1344.4361              1353.7603
 Red. masses --      1.4723                 1.6569                11.6554
 Frc consts  --      1.5367                 1.7646                12.5853
 IR Inten    --      6.4276                10.7336                 5.6278

                    109                    110                    111
                      A                      A                      A
 Frequencies --   1363.9723              1367.6683              1370.8336
 Red. masses --     12.3188                 2.3905                 8.6146
 Frc consts  --     13.5030                 2.6345                 9.5380
 IR Inten    --      3.0374                11.9760                 3.8664

                    112                    113                    114
                      A                      A                      A
 Frequencies --   1391.3389              1404.3610              1406.5579
 Red. masses --      2.1569                 2.1998                 9.0896
 Frc consts  --      2.4600                 2.5562                10.5952
 IR Inten    --     18.9500                 6.6263                 1.5507

                    115                    116                    117
                      A                      A                      A
 Frequencies --   1414.6988              1417.9541              1445.1666
 Red. masses --     11.8026                12.2392                 2.1267
 Frc consts  --     13.9173                14.4986                 2.6169
 IR Inten    --     98.8952                51.7644                28.8030

                    118                    119                    120
                      A                      A                      A
 Frequencies --   1451.7288              1462.4211              1473.5086
 Red. masses --      1.2339                 1.5779                 1.3852
 Frc consts  --      1.5321                 1.9882                 1.7720
 IR Inten    --     30.8339                 7.9230                 6.6232

                    121                    122                    123
                      A                      A                      A
 Frequencies --   1508.9325              1538.3950              1573.0890
 Red. masses --      2.7428                 2.6727                 2.9683
 Frc consts  --      3.6794                 3.7268                 4.3278
 IR Inten    --      1.8125                93.5783                71.3391

                    124                    125                    126
                      A                      A                      A
 Frequencies --   1589.3824              1590.5881              1618.3986
 Red. masses --     11.8777                11.4889                 6.0298
 Frc consts  --     17.6782                17.1256                 9.3052
 IR Inten    --      0.4713                 0.4087                18.4881

                    127                    128                    129
                      A                      A                      A
 Frequencies --   1628.6605              1675.5204              1691.2631
 Red. masses --      6.2660                 5.5082                 7.0980
 Frc consts  --      9.7926                 9.1108                11.9622
 IR Inten    --     13.3050               243.1051                 6.2692

                    130                    131                    132
                      A                      A                      A
 Frequencies --   1698.7065              1702.7751              1708.0411
 Red. masses --     10.2845                11.6504                11.6854
 Frc consts  --     17.4851                19.9023                20.0858
 IR Inten    --      0.6555                 7.1947                 1.3773

                    133                    134                    135
                      A                      A                      A
 Frequencies --   3090.7553              3137.9219              3187.1657
 Red. masses --      1.0681                 1.0624                 1.1054
 Frc consts  --      6.0115                 6.1633                 6.6159
 IR Inten    --      0.3612                 3.6839                 1.4346

                    136                    137                    138
                      A                      A                      A
 Frequencies --   3208.9661              3241.4906              3246.8725
 Red. masses --      1.1093                 1.0944                 1.0922
 Frc consts  --      6.7300                 6.7753                 6.7837
 IR Inten    --      7.0866                 1.6624                 3.7078

                    139                    140                    141
                      A                      A                      A
 Frequencies --   3247.2081              3255.5236              3256.9186
 Red. masses --      1.0925                 1.0947                 1.0976
 Frc consts  --      6.7874                 6.8357                 6.8595
 IR Inten    --      7.0237                13.9269                 9.5683

                    142                    143                    144
                      A                      A                      A
 Frequencies --   3259.2313              3262.0558              3265.7580
 Red. masses --      1.0978                 1.1016                 1.0992
 Frc consts  --      6.8709                 6.9066                 6.9069
 IR Inten    --     15.5553                36.6303                18.5960

 - Thermochemistry -
 -------------------
 Temperature   298.150 Kelvin.  Pressure   1.00000 Atm.
 Atom     1 has atomic number  6 and mass  12.00000

 Molecular mass:   639.91475 amu.
 Principal axes and moments of inertia in atomic units:
                           1         2         3
     Eigenvalues --  ******************************
           X            0.97966   0.09938  -0.17435
           Y           -0.08565   0.99273   0.08456
           Z            0.18148  -0.06790   0.98105
 This molecule is an asymmetric top.
 Rotational symmetry number  1.
 Warning -- assumption of classical behavior for rotation
           may cause significant error
 Rotational temperatures (Kelvin)      0.00523     0.00466     0.00343
 Rotational constants (GHZ):           0.10889     0.09711     0.07150
 Zero-point vibrational energy     869664.1 (Joules/Mol)
                                  207.85470 (Kcal/Mol)
 Warning -- explicit consideration of  53 degrees of freedom as
           vibrations may cause significant error
 Vibrational temperatures:     49.12    51.95    73.46   105.91   112.81
          (Kelvin)            132.05   137.88   174.57   184.24   195.37
                              201.72   210.17   224.76   230.26   289.33
                              323.44   339.47   348.46   368.59   368.80
                              404.84   406.14   410.87   445.71   448.58
                              459.46   468.93   481.09   482.95   489.20
                              491.39   517.53   564.40   564.89   576.41
                              580.11   590.73   597.02   598.67   617.20
                              646.07   671.48   687.59   733.35   774.33
                              780.99   784.69   804.79   835.94   846.64
                              876.20   883.20   890.50   937.68   938.01
                              950.57   951.94   958.28   959.29   964.15
                              982.25  1045.31  1065.58  1069.45  1078.30
                             1089.76  1124.02  1140.65  1147.22  1155.40
                             1176.84  1228.40  1264.84  1273.60  1284.77
                             1289.08  1294.94  1298.47  1302.62  1316.29
                             1342.14  1366.75  1406.66  1421.29  1452.04
                             1459.45  1475.24  1479.60  1517.87  1563.85
                             1582.04  1595.81  1630.98  1639.14  1640.81
                             1673.13  1711.06  1726.27  1756.56  1803.45
                             1814.52  1823.13  1824.97  1827.94  1909.62
                             1914.98  1934.34  1947.76  1962.45  1967.77
                             1972.32  2001.82  2020.56  2023.72  2035.43
                             2040.12  2079.27  2088.71  2104.10  2120.05
                             2171.01  2213.40  2263.32  2286.76  2288.50
                             2328.51  2343.28  2410.70  2433.35  2444.06
                             2449.91  2457.49  4446.90  4514.76  4585.61
                             4616.98  4663.78  4671.52  4672.00  4683.97
                             4685.97  4689.30  4693.36  4698.69

 Zero-point correction=                           0.331238 (Hartree/Particle)
 Thermal correction to Energy=                    0.360250
 Thermal correction to Enthalpy=                  0.361194
 Thermal correction to Gibbs Free Energy=         0.274153
 Sum of electronic and zero-point Energies=          -4044.612509
 Sum of electronic and thermal Energies=             -4044.583497
 Sum of electronic and thermal Enthalpies=           -4044.582553
 Sum of electronic and thermal Free Energies=        -4044.669593

                     E (Thermal)             CV                S
                      KCal/Mol        Cal/Mol-Kelvin    Cal/Mol-Kelvin
 Total                  226.060            117.872            183.193
 Electronic               0.000              0.000              0.000
 Translational            0.889              2.981             45.251
 Rotational               0.889              2.981             37.295
 Vibrational            224.283            111.910            100.647
 Vibration     1          0.594              1.983              5.573
 Vibration     2          0.594              1.982              5.462
 Vibration     3          0.595              1.977              4.776
 Vibration     4          0.599              1.966              4.054
 Vibration     5          0.600              1.964              3.930
 Vibration     6          0.602              1.955              3.622
 Vibration     7          0.603              1.952              3.537
 Vibration     8          0.609              1.931              3.079
 Vibration     9          0.611              1.925              2.975
 Vibration    10          0.614              1.918              2.862
 Vibration    11          0.615              1.913              2.801
 Vibration    12          0.617              1.907              2.723
 Vibration    13          0.620              1.896              2.595
 Vibration    14          0.622              1.891              2.549
 Vibration    15          0.638              1.838              2.123
 Vibration    16          0.649              1.803              1.920
 Vibration    17          0.655              1.786              1.833
 Vibration    18          0.658              1.776              1.787
 Vibration    19          0.666              1.752              1.688
 Vibration    20          0.666              1.752              1.687
 Vibration    21          0.681              1.708              1.525
 Vibration    22          0.681              1.706              1.520
 Vibration    23          0.683              1.700              1.500
 Vibration    24          0.699              1.655              1.363
 Vibration    25          0.700              1.651              1.353
 Vibration    26          0.705              1.637              1.313
 Vibration    27          0.710              1.624              1.280
 Vibration    28          0.716              1.607              1.239
 Vibration    29          0.717              1.604              1.233
 Vibration    30          0.720              1.596              1.212
 Vibration    31          0.721              1.592              1.205
 Vibration    32          0.734              1.555              1.123
 Vibration    33          0.760              1.487              0.991
 Vibration    34          0.760              1.486              0.990
 Vibration    35          0.766              1.469              0.960
 Vibration    36          0.769              1.463              0.951
 Vibration    37          0.775              1.447              0.925
 Vibration    38          0.778              1.438              0.909
 Vibration    39          0.779              1.435              0.905
 Vibration    40          0.790              1.407              0.862
 Vibration    41          0.808              1.363              0.799
 Vibration    42          0.824              1.324              0.747
 Vibration    43          0.834              1.299              0.716
 Vibration    44          0.865              1.228              0.634
 Vibration    45          0.893              1.166              0.569
 Vibration    46          0.898              1.155              0.559
 Vibration    47          0.901              1.150              0.554
 Vibration    48          0.915              1.119              0.525
 Vibration    49          0.938              1.072              0.483
 Vibration    50          0.946              1.056              0.470
 Vibration    51          0.968              1.013              0.434
 Vibration    52          0.973              1.003              0.426
 Vibration    53          0.979              0.992              0.418

 Normal termination of Gaussian 09 at Wed Jun 12 16:55:17 2019.
