 Gaussian 09, Revision D.01,
 Gaussian 09:  EM64L-G09RevD.01 24-Apr-2013

 ------------------------------------------------------------
 # freq=intmodes wb97xd nosymm def2svp integral=ultrafinegrid
 ------------------------------------------------------------

 -----
 Title
 -----
 Symbolic Z-matrix:
 Charge =  2 Multiplicity = 1

                          Input orientation:
 ---------------------------------------------------------------------
 Center     Atomic      Atomic             Coordinates (Angstroms)
 Number     Number       Type             X           Y           Z
 ---------------------------------------------------------------------
      1          6           0       -1.664624    0.366969    2.264368
      2          7           0       -2.424482   -0.770323    2.258356
      3          6           0       -2.320957    1.598736    2.275895
      4          6           0       -1.780524   -2.089288    2.188808
      5          6           0       -3.778739   -0.718032    2.245263
      6          6           0       -0.197977    0.258074    2.271301
      7          6           0       -3.708951    1.663381    2.253600
      8          1           0       -1.746262    2.521532    2.307584
      9          6           0       -0.464831   -2.083636    2.920771
     10          1           0       -2.448080   -2.827402    2.649115
     11          1           0       -1.652974   -2.354049    1.127994
     12          6           0       -4.454022    0.480276    2.248387
     13          1           0       -4.295414   -1.679155    2.244040
     14          7           0        0.378984   -0.969302    2.467979
     15          6           0        0.637085    1.357450    2.098272
     16          1           0       -4.208369    2.633853    2.268009
     17          1           0        0.059833   -3.026638    2.727450
     18          1           0       -0.606115   -1.982898    4.008807
     19          1           0       -5.544188    0.485467    2.246751
     20          6           0        1.718828   -1.137337    2.422121
     21          6           0        2.017251    1.203765    2.079329
     22          1           0        0.212279    2.344699    1.930131
     23          6           0        2.568563   -0.072716    2.221030
     24          1           0        2.082980   -2.154190    2.575197
     25          1           0        2.658417    2.075792    1.942877
     26          1           0        3.644218   -0.244425    2.188543
     27          6           0       -2.011495   -1.867582   -1.205210
     28          6           0       -0.847461   -1.031358   -1.045258
     29         15           0       -3.483569   -0.962320   -1.289131
     30         15           0       -1.550935   -3.620636   -1.325976
     31          6           0        0.317669   -1.745501   -1.005617
     32          6           0       -1.191933    0.374237   -0.963185
     33          6           0       -2.614688    0.591312   -1.053630
     34          6           0        0.111135   -3.176452   -1.120348
     35          6           0        1.723453   -1.406710   -0.944373
     36          6           0       -0.474048    1.542493   -0.903433
     37         15           0       -3.055838    2.279003   -1.033936
     38         15           0        1.690675   -4.054719   -1.156427
     39          6           0        2.437194   -0.242039   -0.948694
     40          6           0        2.572620   -2.580351   -0.999875
     41          6           0       -1.314434    2.716086   -0.905026
     42          6           0        0.932321    1.877338   -0.919393
     43          6           0        2.097880    1.161375   -0.946949
     44          6           0        3.872307   -0.454691   -0.997570
     45         15           0        4.322670   -2.128995   -1.060242
     46         15           0       -0.402924    4.195487   -0.963577
     47          6           0        1.148633    3.306833   -0.940913
     48          6           0        3.274832    2.006715   -0.997160
     49         15           0        4.754539    1.108667   -1.070795
     50         15           0        2.832576    3.748307   -1.028119
 ---------------------------------------------------------------------

 SCF Done:  E(RwB97XD) =  -3911.71999845     A.U. after   27 cycles

 Alpha  occ. eigenvalues --  -77.45676 -77.45588 -77.45550 -77.45453 -77.43923
 Alpha  occ. eigenvalues --  -77.43762 -77.43364 -77.43337 -14.81345 -14.81122
 Alpha  occ. eigenvalues --  -10.65048 -10.64617 -10.62851 -10.62843 -10.62014
 Alpha  occ. eigenvalues --  -10.61504 -10.58996 -10.58913 -10.58803 -10.58686
 Alpha  occ. eigenvalues --  -10.57648 -10.57479 -10.53723 -10.53556 -10.53513
 Alpha  occ. eigenvalues --  -10.53453 -10.53397 -10.53279 -10.53254 -10.53089
 Alpha  occ. eigenvalues --  -10.52230 -10.52185 -10.51998 -10.51948 -10.51935
 Alpha  occ. eigenvalues --  -10.51873 -10.51822 -10.51816  -6.91320  -6.91239
 Alpha  occ. eigenvalues --   -6.91202  -6.91130  -6.89618  -6.89446  -6.89094
 Alpha  occ. eigenvalues --   -6.89024  -5.06681  -5.06572  -5.06561  -5.06471
 Alpha  occ. eigenvalues --   -5.06311  -5.06246  -5.06191  -5.06130  -5.05919
 Alpha  occ. eigenvalues --   -5.05861  -5.05797  -5.05732  -5.04850  -5.04667
 Alpha  occ. eigenvalues --   -5.04634  -5.04521  -5.04292  -5.04280  -5.04195
 Alpha  occ. eigenvalues --   -5.04159  -5.04133  -5.04107  -5.03769  -5.03729
 Alpha  occ. eigenvalues --   -1.40155  -1.36875  -1.21860  -1.21219  -1.19080
 Alpha  occ. eigenvalues --   -1.18875  -1.18463  -1.18336  -1.13260  -1.12852
 Alpha  occ. eigenvalues --   -1.12627  -1.12264  -1.05047  -1.04942  -1.04798
 Alpha  occ. eigenvalues --   -1.04546  -1.04233  -1.02342  -1.01042  -1.00924
 Alpha  occ. eigenvalues --   -1.00057  -0.96914  -0.95269  -0.94993  -0.94689
 Alpha  occ. eigenvalues --   -0.93903  -0.93164  -0.88748  -0.88581  -0.87865
 Alpha  occ. eigenvalues --   -0.87792  -0.86306  -0.85759  -0.84739  -0.84695
 Alpha  occ. eigenvalues --   -0.83916  -0.83160  -0.82739  -0.81720  -0.81354
 Alpha  occ. eigenvalues --   -0.80591  -0.80055  -0.79729  -0.79649  -0.78486
 Alpha  occ. eigenvalues --   -0.77923  -0.76879  -0.76649  -0.76193  -0.74185
 Alpha  occ. eigenvalues --   -0.73427  -0.73089  -0.73016  -0.71782  -0.71434
 Alpha  occ. eigenvalues --   -0.71073  -0.70158  -0.69854  -0.68915  -0.67372
 Alpha  occ. eigenvalues --   -0.66114  -0.66032  -0.65744  -0.65681  -0.65576
 Alpha  occ. eigenvalues --   -0.64878  -0.63856  -0.62825  -0.61998  -0.60915
 Alpha  occ. eigenvalues --   -0.59315  -0.58797  -0.58704  -0.58074  -0.57355
 Alpha  occ. eigenvalues --   -0.57074  -0.56406  -0.56221  -0.56063  -0.55936
 Alpha  occ. eigenvalues --   -0.54461  -0.54385  -0.53007  -0.52749  -0.48451
 Alpha  occ. eigenvalues --   -0.44418
 Alpha virt. eigenvalues --   -0.31363  -0.29662  -0.29027  -0.26826  -0.26593
 Alpha virt. eigenvalues --   -0.23940  -0.23500  -0.18261  -0.13854  -0.13454
 Alpha virt. eigenvalues --   -0.12925  -0.12881  -0.12391  -0.11572  -0.10168

 Mulliken charges:
               1
     1  C    0.169206
     2  N   -0.234439
     3  C   -0.039145
     4  C    0.095468
     5  C    0.112233
     6  C    0.140987
     7  C    0.092709
     8  H    0.076575
     9  C    0.078437
    10  H    0.119688
    11  H    0.115762
    12  C   -0.015915
    13  H    0.119144
    14  N   -0.228536
    15  C   -0.007660
    16  H    0.110518
    17  H    0.114584
    18  H    0.131401
    19  H    0.116960
    20  C    0.130852
    21  C    0.102810
    22  H    0.058447
    23  C   -0.014502
    24  H    0.109811
    25  H    0.086954
    26  H    0.100525
    27  C   -0.515763
    28  C    0.065908
    29  P    0.455275
    30  P    0.407600
    31  C    0.070026
    32  C    0.098611
    33  C   -0.493676
    34  C   -0.487688
    35  C    0.076532
    36  C    0.070175
    37  P    0.381345
    38  P    0.511982
    39  C    0.074101
    40  C   -0.486473
    41  C   -0.505366
    42  C    0.076427
    43  C    0.087261
    44  C   -0.489981
    45  P    0.449265
    46  P    0.513268
    47  C   -0.499442
    48  C   -0.497883
    49  P    0.527849
    50  P    0.467775
 Sum of Mulliken charges =   2.00000

 Dipole moment (field-independent basis, Debye):
    X=             -3.3992    Y=             -1.4845    Z=             12.4920  Tot=             13.0311
 Quadrupole moment (field-independent basis, Debye-Ang):
   XX=           -171.2980   YY=           -205.0211   ZZ=           -212.5214
   XY=              0.7186   XZ=            -24.2543   YZ=             -8.8238

  Exact polarizability: 701.177  -8.735 614.136 -73.340   0.708 390.441
 Approx polarizability:1004.288 -15.694 916.694 -33.224  -1.832 448.963

                      1                      2                      3
                      A                      A                      A
 Frequencies --     26.5859                34.5619                39.6024
 Red. masses --      6.4625                 8.6164                10.6143
 Frc consts  --      0.0027                 0.0061                 0.0098
 IR Inten    --      0.3898                 2.2421                 0.3285

                      4                      5                      6
                      A                      A                      A
 Frequencies --     55.1759                65.1435                73.8775
 Red. masses --      7.0637                13.6811                13.2485
 Frc consts  --      0.0127                 0.0342                 0.0426
 IR Inten    --      3.3635                 2.6312                 5.2661

                      7                      8                      9
                      A                      A                      A
 Frequencies --     84.4835                94.5610               112.7636
 Red. masses --      6.7951                 8.2197                 4.2349
 Frc consts  --      0.0286                 0.0433                 0.0317
 IR Inten    --      3.0523                19.8738                 5.4681

                     10                     11                     12
                      A                      A                      A
 Frequencies --    117.9929               145.9811               149.1750
 Red. masses --      5.1357                 8.5061                17.4612
 Frc consts  --      0.0421                 0.1068                 0.2289
 IR Inten    --      3.9688                 4.3710                 1.3665

                     13                     14                     15
                      A                      A                      A
 Frequencies --    151.4086               189.1757               192.1088
 Red. masses --     12.5065                 3.6553                25.8554
 Frc consts  --      0.1689                 0.0771                 0.5622
 IR Inten    --      0.3880                 1.8944                 0.2191

                     16                     17                     18
                      A                      A                      A
 Frequencies --    206.6493               208.6577               216.7764
 Red. masses --     10.0747                 4.9431                 4.3318
 Frc consts  --      0.2535                 0.1268                 0.1199
 IR Inten    --      2.7267                 4.7776                 0.4940

                     19                     20                     21
                      A                      A                      A
 Frequencies --    248.3172               264.0461               269.8201
 Red. masses --     17.6088                17.0917                 4.4908
 Frc consts  --      0.6397                 0.7021                 0.1926
 IR Inten    --      0.3359                 0.2408                 0.3600

                     22                     23                     24
                      A                      A                      A
 Frequencies --    276.7431               277.9947               289.4466
 Red. masses --     22.2427                21.7574                12.7672
 Frc consts  --      1.0037                 0.9907                 0.6302
 IR Inten    --     35.6659                31.6197                 0.8240

                     25                     26                     27
                      A                      A                      A
 Frequencies --    307.2365               321.2295               325.9571
 Red. masses --      2.7351                11.0239                22.9749
 Frc consts  --      0.1521                 0.6702                 1.4382
 IR Inten    --      0.9786                 0.9195                 1.6136

                     28                     29                     30
                      A                      A                      A
 Frequencies --    330.4653               344.4943               350.2885
 Red. masses --     22.1102                16.6411                14.3284
 Frc consts  --      1.4226                 1.1636                 1.0359
 IR Inten    --      0.8550                 6.9112                 0.7341

                     31                     32                     33
                      A                      A                      A
 Frequencies --    355.3471               360.9195               397.2668
 Red. masses --     12.9049                13.0093                25.5180
 Frc consts  --      0.9601                 0.9984                 2.3728
 IR Inten    --      0.6681                 1.5662                 0.6012

                     34                     35                     36
                      A                      A                      A
 Frequencies --    398.0978               401.9859               411.2627
 Red. masses --     24.8116                 5.5144                 3.1408
 Frc consts  --      2.3168                 0.5250                 0.3130
 IR Inten    --      1.5916                 3.7824                 0.1035

                     37                     38                     39
                      A                      A                      A
 Frequencies --    418.6267               419.3920               424.7303
 Red. masses --     24.1269                23.5744                25.6916
 Frc consts  --      2.4912                 2.4430                 2.7307
 IR Inten    --      5.6247                 3.8934                 2.1886

                     40                     41                     42
                      A                      A                      A
 Frequencies --    440.6488               444.7966               454.7846
 Red. masses --     20.9392                 3.2558                 3.3828
 Frc consts  --      2.3955                 0.3795                 0.4122
 IR Inten    --      7.7064                 0.5791                 1.1883

                     43                     44                     45
                      A                      A                      A
 Frequencies --    464.3988               488.7767               509.8286
 Red. masses --      4.3132                13.4909                 4.1609
 Frc consts  --      0.5481                 1.8989                 0.6372
 IR Inten    --      1.4685                49.1312                 1.3229

                     46                     47                     48
                      A                      A                      A
 Frequencies --    530.3576               551.0250               566.1787
 Red. masses --     12.2572                 3.1278                 4.9085
 Frc consts  --      2.0313                 0.5595                 0.9271
 IR Inten    --      9.5039                 2.7876                 0.2855

                     49                     50                     51
                      A                      A                      A
 Frequencies --    569.5077               571.6244               627.7791
 Red. masses --     12.2097                12.2714                 2.7816
 Frc consts  --      2.3332                 2.3625                 0.6459
 IR Inten    --      1.3308                 0.9049                 0.6593

                     52                     53                     54
                      A                      A                      A
 Frequencies --    642.9583               647.4359               649.1914
 Red. masses --     16.5065                17.0347                12.1144
 Frc consts  --      4.0204                 4.2071                 3.0081
 IR Inten    --    117.2484               240.0782                 5.4935

                     55                     56                     57
                      A                      A                      A
 Frequencies --    650.4654               656.1797               660.1442
 Red. masses --     16.6111                16.5072                 6.6321
 Frc consts  --      4.1409                 4.1876                 1.7029
 IR Inten    --    143.7050                23.3822                 0.2371

                     58                     59                     60
                      A                      A                      A
 Frequencies --    664.9443               720.7831               729.2303
 Red. masses --     12.2640                 4.1511                10.1635
 Frc consts  --      3.1949                 1.2706                 3.1844
 IR Inten    --      0.5856                26.6534                 8.0134

                     61                     62                     63
                      A                      A                      A
 Frequencies --    735.3680               749.6661               751.7208
 Red. masses --     10.4831                 5.2458                 8.6857
 Frc consts  --      3.3400                 1.7370                 2.8918
 IR Inten    --     10.2370                 2.5732                 1.9416

                     64                     65                     66
                      A                      A                      A
 Frequencies --    753.4999               756.6016               783.3105
 Red. masses --     12.5591                 2.3398                 1.4470
 Frc consts  --      4.2012                 0.7891                 0.5231
 IR Inten    --      1.8958                 2.7454                52.7183

                     67                     68                     69
                      A                      A                      A
 Frequencies --    788.4996               801.9502               807.7194
 Red. masses --      9.4248                 1.8023                 2.2124
 Frc consts  --      3.4524                 0.6829                 0.8504
 IR Inten    --      5.7881                17.9465                 9.3342

                     70                     71                     72
                      A                      A                      A
 Frequencies --    816.6167               820.4839               842.8682
 Red. masses --     12.5640                 4.6757                12.8114
 Frc consts  --      4.9364                 1.8545                 5.3625
 IR Inten    --      0.2485                 4.4101                 0.8955

                     73                     74                     75
                      A                      A                      A
 Frequencies --    902.8783               917.8950               937.4709
 Red. masses --      1.4565                 1.3726                12.5889
 Frc consts  --      0.6996                 0.6814                 6.5186
 IR Inten    --      6.3321                15.1896                98.4634

                     76                     77                     78
                      A                      A                      A
 Frequencies --    945.9506               974.6107               976.2012
 Red. masses --      2.2185                12.4717                11.7437
 Frc consts  --      1.1696                 6.9797                 6.5938
 IR Inten    --      1.9747               285.2879               200.9911

                     79                     80                     81
                      A                      A                      A
 Frequencies --    996.8031              1001.1238              1033.9000
 Red. masses --      1.3843                 1.3627                 1.4863
 Frc consts  --      0.8104                 0.8047                 0.9361
 IR Inten    --      1.8589                 2.4383                 7.6925

                     82                     83                     84
                      A                      A                      A
 Frequencies --   1036.3551              1042.8648              1060.5555
 Red. masses --      1.8460                 1.3680                 6.4441
 Frc consts  --      1.1681                 0.8766                 4.2705
 IR Inten    --     19.5248                 8.6219                 0.5328

                     85                     86                     87
                      A                      A                      A
 Frequencies --   1087.5658              1090.9986              1099.9479
 Red. masses --     10.8631                 1.9074                 2.0429
 Frc consts  --      7.5703                 1.3376                 1.4563
 IR Inten    --      5.3239                 0.9267                14.1716

                     88                     89                     90
                      A                      A                      A
 Frequencies --   1103.2378              1109.2878              1118.6636
 Red. masses --     11.0990                 2.1080                12.2470
 Frc consts  --      7.9592                 1.5283                 9.0298
 IR Inten    --     11.1140                 4.1951               155.1874

                     91                     92                     93
                      A                      A                      A
 Frequencies --   1119.7118              1140.5948              1149.0715
 Red. masses --     12.2139                 1.9526                11.9723
 Frc consts  --      9.0223                 1.4967                 9.3137
 IR Inten    --    244.2675                 0.0453                 2.3769

                     94                     95                     96
                      A                      A                      A
 Frequencies --   1159.9329              1162.3451              1177.5627
 Red. masses --     12.1649                12.4159                 1.3658
 Frc consts  --      9.6432                 9.8833                 1.1159
 IR Inten    --     28.6960                10.6800                 5.5953

                     97                     98                     99
                      A                      A                      A
 Frequencies --   1180.4297              1194.3232              1201.7091
 Red. masses --     11.4492                 1.1157                 1.1277
 Frc consts  --      9.3995                 0.9376                 0.9595
 IR Inten    --      8.9328                 6.2229               122.1205

                    100                    101                    102
                      A                      A                      A
 Frequencies --   1211.3520              1221.1819              1245.6980
 Red. masses --     11.6862                 2.3032                 2.6110
 Frc consts  --     10.1034                 2.0237                 2.3871
 IR Inten    --     11.4688                 4.8363               191.2931

                    103                    104                    105
                      A                      A                      A
 Frequencies --   1267.7673              1270.0455              1281.4005
 Red. masses --      1.3306                 1.4313                10.5585
 Frc consts  --      1.2600                 1.3603                10.2147
 IR Inten    --     76.5237                31.0255                15.4196

                    106                    107                    108
                      A                      A                      A
 Frequencies --   1283.7381              1304.8129              1323.9619
 Red. masses --     11.4179                10.9006                 9.2317
 Frc consts  --     11.0864                10.9344                 9.5341
 IR Inten    --     33.3432                51.0529               119.1750

                    109                    110                    111
                      A                      A                      A
 Frequencies --   1325.3034              1326.8606              1335.9996
 Red. masses --      2.8595                 2.4771                 1.5028
 Frc consts  --      2.9592                 2.5695                 1.5804
 IR Inten    --     19.0548                 7.9516                32.7125

                    112                    113                    114
                      A                      A                      A
 Frequencies --   1345.9278              1365.2803              1371.4905
 Red. masses --      2.6298                 9.7161                 2.7412
 Frc consts  --      2.8068                10.6706                 3.0379
 IR Inten    --    220.5510                 0.6174                 6.7341

                    115                    116                    117
                      A                      A                      A
 Frequencies --   1392.1670              1404.8977              1429.2175
 Red. masses --      2.2944                 1.8941                10.1801
 Frc consts  --      2.6200                 2.2026                12.2518
 IR Inten    --      7.8505                23.1764                36.0801

                    118                    119                    120
                      A                      A                      A
 Frequencies --   1435.2526              1457.7805              1468.4812
 Red. masses --      2.2686                 1.1413                 1.2860
 Frc consts  --      2.7534                 1.4290                 1.6339
 IR Inten    --    381.3961                 7.3254                15.2287

                    121                    122                    123
                      A                      A                      A
 Frequencies --   1482.8476              1518.2379              1536.9131
 Red. masses --      1.8225                 2.9889                 2.4478
 Frc consts  --      2.3610                 4.0593                 3.4066
 IR Inten    --     24.8926                15.2725                68.1049

                    124                    125                    126
                      A                      A                      A
 Frequencies --   1556.3375              1607.1558              1623.5910
 Red. masses --      2.9362                11.2708                 5.5872
 Frc consts  --      4.1903                17.1523                 8.6775
 IR Inten    --    684.9146                27.9891               445.2278

                    127                    128                    129
                      A                      A                      A
 Frequencies --   1653.1835              1670.3759              1678.2679
 Red. masses --      6.6566                11.1037                11.9189
 Frc consts  --     10.7187                18.2536                19.7792
 IR Inten    --     51.0847                 6.0284                24.1432

                    130                    131                    132
                      A                      A                      A
 Frequencies --   1685.2066              1700.4918              1735.8398
 Red. masses --      5.6963                 6.2886                11.5097
 Frc consts  --      9.5312                10.7141                20.4330
 IR Inten    --     49.2147                 8.4340               359.2969

                    133                    134                    135
                      A                      A                      A
 Frequencies --   3089.5978              3103.1478              3181.6154
 Red. masses --      1.0691                 1.0633                 1.1059
 Frc consts  --      6.0128                 6.0325                 6.5955
 IR Inten    --      1.8946                 7.6976                 4.2647

                    136                    137                    138
                      A                      A                      A
 Frequencies --   3187.0165              3240.4209              3242.3643
 Red. masses --      1.1064                 1.0934                 1.0932
 Frc consts  --      6.6212                 6.7647                 6.7711
 IR Inten    --      3.7956                 6.4374                 1.9764

                    139                    140                    141
                      A                      A                      A
 Frequencies --   3247.1937              3248.8662              3258.6498
 Red. masses --      1.0954                 1.0953                 1.1019
 Frc consts  --      6.8049                 6.8113                 6.8939
 IR Inten    --     11.8933                 5.6020                49.2910

                    142                    143                    144
                      A                      A                      A
 Frequencies --   3261.9084              3266.1345              3280.0152
 Red. masses --      1.1005                 1.0985                 1.0942
 Frc consts  --      6.8992                 6.9040                 6.9358
 IR Inten    --     11.6680                 3.1558                 4.6456

 - Thermochemistry -
 -------------------
 Temperature   298.150 Kelvin.  Pressure   1.00000 Atm.
 Atom     1 has atomic number  6 and mass  12.00000

 Molecular mass:   623.89016 amu.
 Principal axes and moments of inertia in atomic units:
                           1         2         3
     Eigenvalues --  ******************************
           X            0.97478   0.00961   0.22298
           Y           -0.01240   0.99986   0.01115
           Z           -0.22284  -0.01363   0.97476
 This molecule is an asymmetric top.
 Rotational symmetry number  1.
 Warning -- assumption of classical behavior for rotation
           may cause significant error
 Rotational temperatures (Kelvin)      0.00527     0.00428     0.00320
 Rotational constants (GHZ):           0.10986     0.08928     0.06671
 Zero-point vibrational energy     873595.0 (Joules/Mol)
                                  208.79422 (Kcal/Mol)
 Warning -- explicit consideration of  50 degrees of freedom as
           vibrations may cause significant error
 Vibrational temperatures:     38.25    49.73    56.98    79.39    93.73
          (Kelvin)            106.29   121.55   136.05   162.24   169.77
                              210.03   214.63   217.84   272.18   276.40
                              297.32   300.21   311.89   357.27   379.90
                              388.21   398.17   399.97   416.45   442.04
                              462.18   468.98   475.47   495.65   503.99
                              511.26   519.28   571.58   572.77   578.37
                              591.71   602.31   603.41   611.09   633.99
                              639.96   654.33   668.17   703.24   733.53
                              763.07   792.80   814.60   819.39   822.44
                              903.23   925.07   931.51   934.04   935.87
                              944.10   949.80   956.71  1037.04  1049.20
                             1058.03  1078.60  1081.56  1084.12  1088.58
                             1127.01  1134.47  1153.83  1162.13  1174.93
                             1180.49  1212.70  1299.04  1320.64  1348.81
                             1361.01  1402.25  1404.53  1434.18  1440.39
                             1487.55  1491.08  1500.45  1525.90  1564.76
                             1569.70  1582.58  1587.31  1596.02  1609.51
                             1611.01  1641.06  1653.26  1668.88  1672.35
                             1694.25  1698.37  1718.36  1728.99  1742.86
                             1757.01  1792.28  1824.03  1827.31  1843.65
                             1847.01  1877.33  1904.88  1906.81  1909.05
                             1922.20  1936.49  1964.33  1973.27  2003.02
                             2021.33  2056.32  2065.01  2097.42  2112.81
                             2133.48  2184.40  2211.27  2239.22  2312.34
                             2335.98  2378.56  2403.30  2414.65  2424.63
                             2446.63  2497.48  4445.24  4464.73  4577.63
                             4585.40  4662.24  4665.03  4671.98  4674.39
                             4688.46  4693.15  4699.23  4719.20

 Zero-point correction=                           0.332735 (Hartree/Particle)
 Thermal correction to Energy=                    0.361848
 Thermal correction to Enthalpy=                  0.362792
 Thermal correction to Gibbs Free Energy=         0.274119
 Sum of electronic and zero-point Energies=          -3911.387264
 Sum of electronic and thermal Energies=             -3911.358151
 Sum of electronic and thermal Enthalpies=           -3911.357207
 Sum of electronic and thermal Free Energies=        -3911.445880

                     E (Thermal)             CV                S
                      KCal/Mol        Cal/Mol-Kelvin    Cal/Mol-Kelvin
 Total                  227.063            116.423            186.628
 Electronic               0.000              0.000              0.000
 Translational            0.889              2.981             45.175
 Rotational               0.889              2.981             37.439
 Vibrational            225.285            110.461            104.014
 Vibration     1          0.593              1.984              6.069
 Vibration     2          0.594              1.983              5.549
 Vibration     3          0.594              1.981              5.279
 Vibration     4          0.596              1.976              4.623
 Vibration     5          0.597              1.971              4.295
 Vibration     6          0.599              1.966              4.047
 Vibration     7          0.601              1.960              3.784
 Vibration     8          0.603              1.953              3.563
 Vibration     9          0.607              1.939              3.221
 Vibration    10          0.608              1.934              3.133
 Vibration    11          0.617              1.907              2.724
 Vibration    12          0.618              1.904              2.683
 Vibration    13          0.619              1.901              2.654
 Vibration    14          0.633              1.855              2.236
 Vibration    15          0.634              1.851              2.207
 Vibration    16          0.641              1.830              2.073
 Vibration    17          0.642              1.827              2.055
 Vibration    18          0.646              1.815              1.986
 Vibration    19          0.662              1.766              1.742
 Vibration    20          0.671              1.739              1.635
 Vibration    21          0.674              1.729              1.597
 Vibration    22          0.678              1.716              1.554
 Vibration    23          0.679              1.714              1.546
 Vibration    24          0.686              1.693              1.477
 Vibration    25          0.697              1.660              1.377
 Vibration    26          0.707              1.633              1.304
 Vibration    27          0.710              1.624              1.280
 Vibration    28          0.713              1.615              1.258
 Vibration    29          0.723              1.586              1.191
 Vibration    30          0.727              1.575              1.165
 Vibration    31          0.731              1.564              1.142
 Vibration    32          0.735              1.553              1.118
 Vibration    33          0.764              1.476              0.973
 Vibration    34          0.764              1.474              0.970
 Vibration    35          0.768              1.466              0.955
 Vibration    36          0.775              1.446              0.922
 Vibration    37          0.781              1.430              0.897
 Vibration    38          0.782              1.428              0.894
 Vibration    39          0.787              1.416              0.876
 Vibration    40          0.801              1.382              0.825
 Vibration    41          0.804              1.372              0.812
 Vibration    42          0.813              1.350              0.781
 Vibration    43          0.822              1.329              0.753
 Vibration    44          0.845              1.275              0.687
 Vibration    45          0.865              1.228              0.634
 Vibration    46          0.885              1.183              0.586
 Vibration    47          0.906              1.137              0.542
 Vibration    48          0.922              1.104              0.512
 Vibration    49          0.926              1.097              0.505
 Vibration    50          0.928              1.093              0.501

 Normal termination of Gaussian 09 at Sun Jun  9 10:28:46 2019.
