 Gaussian 09, Revision D.01,
 Gaussian 09:  EM64L-G09RevD.01 24-Apr-2013

 -------------------------------------------------------
 # opt freq wb97xd nosymm def2svp integral=ultrafinegrid
 -------------------------------------------------------

 -----
 Title
 -----
 Symbolic Z-matrix:
 Charge =  2 Multiplicity = 1

 SCF Done:  E(RwB97XD) =  -572.824643223     A.U. after   15 cycles
 SCF Done:  E(RwB97XD) =  -572.826736634     A.U. after   13 cycles
 SCF Done:  E(RwB97XD) =  -572.827728025     A.U. after   13 cycles
 SCF Done:  E(RwB97XD) =  -572.827831731     A.U. after   12 cycles
 SCF Done:  E(RwB97XD) =  -572.827847107     A.U. after    9 cycles
 SCF Done:  E(RwB97XD) =  -572.827847662     A.U. after    8 cycles
 SCF Done:  E(RwB97XD) =  -572.827847728     A.U. after    7 cycles
 Optimization completed.
    -- Stationary point found.
 Normal termination of Gaussian 09 at Mon Jun 10 01:46:52 2019.

 --------------------------------------------------------------------
 #N Geom=AllCheck Guess=TCheck SCRF=Check GenChk RwB97XD/def2SVP Freq
 --------------------------------------------------------------------

 Structure from the checkpoint file:  "/home/scratch/vidal/Gau-18354.chk"
 -----
 Title
 -----
 Charge =  2 Multiplicity = 1

                          Input orientation:
 ---------------------------------------------------------------------
 Center     Atomic      Atomic             Coordinates (Angstroms)
 Number     Number       Type             X           Y           Z
 ---------------------------------------------------------------------
      1          6           0       -1.674663    0.368300    2.294866
      2          7           0       -2.425113   -0.764667    2.187138
      3          6           0       -2.316746    1.591210    2.433849
      4          6           0       -1.723942   -2.058727    2.060453
      5          6           0       -3.772141   -0.723397    2.177608
      6          6           0       -0.193948    0.248181    2.251202
      7          6           0       -3.712852    1.651788    2.427865
      8          1           0       -1.735340    2.503473    2.567632
      9          6           0       -0.514568   -2.061025    2.967083
     10          1           0       -2.410701   -2.862486    2.351562
     11          1           0       -1.444898   -2.204526    1.004896
     12          6           0       -4.449508    0.479442    2.288339
     13          1           0       -4.290296   -1.679873    2.081990
     14          7           0        0.375138   -0.941966    2.595002
     15          6           0        0.626074    1.305110    1.880360
     16          1           0       -4.216944    2.614650    2.538389
     17          1           0        0.035794   -3.002636    2.853567
     18          1           0       -0.796253   -1.947894    4.025945
     19          1           0       -5.540816    0.483010    2.278146
     20          6           0        1.712496   -1.107043    2.616948
     21          6           0        2.014835    1.150492    1.895835
     22          1           0        0.189819    2.250392    1.557530
     23          6           0        2.564750   -0.069249    2.278443
     24          1           0        2.079013   -2.093100    2.909928
     25          1           0        2.659076    1.982659    1.602825
     26          1           0        3.643662   -0.231516    2.304578
 ---------------------------------------------------------------------

 SCF Done:  E(RwB97XD) =  -572.827847728     A.U. after    1 cycles

 Alpha  occ. eigenvalues --  -14.86691 -14.86689 -10.69824 -10.69809 -10.67614
 Alpha  occ. eigenvalues --  -10.67612 -10.66514 -10.66504 -10.63399 -10.63394
 Alpha  occ. eigenvalues --  -10.63322 -10.63320 -10.62178 -10.62178  -1.45407
 Alpha  occ. eigenvalues --   -1.42106  -1.26367  -1.23849  -1.23397  -1.17785
 Alpha  occ. eigenvalues --   -1.17476  -1.09511  -1.08845  -1.06638  -1.05064
 Alpha  occ. eigenvalues --   -0.99669  -0.97647  -0.93366  -0.93182  -0.91062
 Alpha  occ. eigenvalues --   -0.89785  -0.87534  -0.86984  -0.86307  -0.85660
 Alpha  occ. eigenvalues --   -0.84911  -0.84474  -0.80828  -0.80595  -0.77568
 Alpha  occ. eigenvalues --   -0.77421  -0.77028  -0.75705  -0.75515  -0.70199
 Alpha  occ. eigenvalues --   -0.69387  -0.68858  -0.64074
 Alpha virt. eigenvalues --   -0.33530  -0.28644  -0.28195  -0.22968  -0.14786
 Alpha virt. eigenvalues --   -0.12629  -0.12627  -0.12206  -0.10955  -0.09109
 Alpha virt. eigenvalues --   -0.09097  -0.08657  -0.08585  -0.05698  -0.05679

 Mulliken charges:
               1
     1  C    0.145466
     2  N   -0.223664
     3  C   -0.030950
     4  C    0.069899
     5  C    0.137104
     6  C    0.145617
     7  C    0.101913
     8  H    0.106511
     9  C    0.069900
    10  H    0.141957
    11  H    0.147789
    12  C   -0.008100
    13  H    0.138995
    14  N   -0.223697
    15  C   -0.031037
    16  H    0.132876
    17  H    0.141965
    18  H    0.147784
    19  H    0.140185
    20  C    0.137144
    21  C    0.101915
    22  H    0.106536
    23  C   -0.008160
    24  H    0.139002
    25  H    0.132866
    26  H    0.140185
 Sum of Mulliken charges =   2.00000

 Dipole moment (field-independent basis, Debye):
    X=             -9.3971    Y=             -2.4417    Z=             22.3840  Tot=             24.3990
 Quadrupole moment (field-independent basis, Debye-Ang):
   XX=              6.0849   YY=            -39.0529   ZZ=            -24.2112
   XY=             -0.4711   XZ=            -22.0548   YZ=             -9.4240

  Exact polarizability: 191.916  -4.565 135.402  -1.762  -7.037  65.190
 Approx polarizability: 196.919  -2.416 167.839  -1.943  -8.429  84.093

                      1                      2                      3
                      A                      A                      A
 Frequencies --     86.7752               103.6679               182.3160
 Red. masses --      4.1349                 3.6966                 3.4221
 Frc consts  --      0.0183                 0.0234                 0.0670
 IR Inten    --      1.1415                 0.0179                 0.0015

                      4                      5                      6
                      A                      A                      A
 Frequencies --    201.5503               280.3504               319.4161
 Red. masses --      3.0580                 4.1307                 2.4873
 Frc consts  --      0.0732                 0.1913                 0.1495
 IR Inten    --      6.7607                 0.1000                 0.3718

                      7                      8                      9
                      A                      A                      A
 Frequencies --    400.5900               403.7935               455.6226
 Red. masses --      3.2079                 5.3079                 3.0909
 Frc consts  --      0.3033                 0.5099                 0.3780
 IR Inten    --      1.9343                 0.2020                 0.0125

                     10                     11                     12
                      A                      A                      A
 Frequencies --    466.0138               484.0626               513.8396
 Red. masses --      3.0011                 4.0423                 4.3761
 Frc consts  --      0.3840                 0.5581                 0.6808
 IR Inten    --      0.8961                12.5119                 1.0658

                     13                     14                     15
                      A                      A                      A
 Frequencies --    551.3066               566.5817               615.9675
 Red. masses --      3.1974                 4.2189                 2.6431
 Frc consts  --      0.5726                 0.7980                 0.5908
 IR Inten    --      0.9035                 0.0127                 3.4262

                     16                     17                     18
                      A                      A                      A
 Frequencies --    661.4396               743.7514               753.3069
 Red. masses --      6.5971                 3.4090                 5.3550
 Frc consts  --      1.7005                 1.1111                 1.7904
 IR Inten    --      0.2124                27.8226                 0.2876

                     19                     20                     21
                      A                      A                      A
 Frequencies --    780.6368               791.3297               807.1206
 Red. masses --      2.1788                 2.4092                 1.4322
 Frc consts  --      0.7823                 0.8889                 0.5497
 IR Inten    --      0.5271                17.9243                67.5470

                     22                     23                     24
                      A                      A                      A
 Frequencies --    813.4933               818.9231               929.3751
 Red. masses --      3.6624                 1.8582                 1.3248
 Frc consts  --      1.4280                 0.7342                 0.6742
 IR Inten    --      0.1070                 4.2675                 0.5213

                     25                     26                     27
                      A                      A                      A
 Frequencies --    935.7972               953.2012              1014.1585
 Red. masses --      1.4585                 2.1978                 1.4942
 Frc consts  --      0.7525                 1.1765                 0.9055
 IR Inten    --      0.1354                 3.0042                 0.0136

                     28                     29                     30
                      A                      A                      A
 Frequencies --   1016.9123              1021.0088              1063.9453
 Red. masses --      1.3812                 1.8684                 6.1500
 Frc consts  --      0.8415                 1.1476                 4.1017
 IR Inten    --      0.9170                 0.0297                 6.4955

                     31                     32                     33
                      A                      A                      A
 Frequencies --   1065.0855              1066.4740              1097.0968
 Red. masses --      1.4033                 1.3906                 1.9468
 Frc consts  --      0.9379                 0.9318                 1.3806
 IR Inten    --      0.0133                 0.6052                 0.0512

                     34                     35                     36
                      A                      A                      A
 Frequencies --   1103.2918              1106.4259              1137.3178
 Red. masses --      2.0777                 2.1315                 1.9546
 Frc consts  --      1.4901                 1.5373                 1.4896
 IR Inten    --      0.5194                 0.0300                 0.0389

                     37                     38                     39
                      A                      A                      A
 Frequencies --   1172.4264              1199.1885              1207.1268
 Red. masses --      1.4263                 1.1023                 1.1085
 Frc consts  --      1.1551                 0.9339                 0.9517
 IR Inten    --     13.1050                 8.4417                 0.8780

                     40                     41                     42
                      A                      A                      A
 Frequencies --   1218.8372              1239.6158              1260.3019
 Red. masses --      2.2200                 2.5338                 1.4210
 Frc consts  --      1.9431                 2.2940                 1.3299
 IR Inten    --     28.5212                40.5298                18.2151

                     43                     44                     45
                      A                      A                      A
 Frequencies --   1270.2074              1324.8094              1337.3770
 Red. masses --      1.3395                 1.7726                 1.4873
 Frc consts  --      1.2733                 1.8330                 1.5673
 IR Inten    --     28.2384                 1.5871                 6.0232

                     46                     47                     48
                      A                      A                      A
 Frequencies --   1343.8390              1364.8499              1384.7314
 Red. masses --      2.3253                 2.4547                 2.0589
 Frc consts  --      2.4741                 2.6942                 2.3261
 IR Inten    --      2.2203                66.5053                 1.2818

                     49                     50                     51
                      A                      A                      A
 Frequencies --   1393.9876              1442.4854              1462.6939
 Red. masses --      1.7333                 2.0617                 1.1076
 Frc consts  --      1.9845                 2.5275                 1.3962
 IR Inten    --     29.9032                15.1906                20.3010

                     52                     53                     54
                      A                      A                      A
 Frequencies --   1466.3687              1483.2335              1516.6651
 Red. masses --      1.1679                 2.1057                 2.9672
 Frc consts  --      1.4796                 2.7294                 4.0214
 IR Inten    --     12.9878                 3.6680                24.5640

                     55                     56                     57
                      A                      A                      A
 Frequencies --   1540.4244              1580.4656              1666.1013
 Red. masses --      2.3167                 3.0533                 6.6447
 Frc consts  --      3.2389                 4.4935                10.8674
 IR Inten    --    124.6497                10.3984                39.7440

                     58                     59                     60
                      A                      A                      A
 Frequencies --   1668.1233              1687.9076              1707.2940
 Red. masses --      6.7413                 5.8706                 6.6134
 Frc consts  --     11.0523                 9.8544                11.3577
 IR Inten    --     21.6580                78.2696                14.2062

                     61                     62                     63
                      A                      A                      A
 Frequencies --   3094.6563              3100.5996              3188.0421
 Red. masses --      1.0698                 1.0648                 1.1064
 Frc consts  --      6.0364                 6.0312                 6.6257
 IR Inten    --      2.7076                 2.1413                 5.3938

                     64                     65                     66
                      A                      A                      A
 Frequencies --   3191.7528              3234.1813              3235.5778
 Red. masses --      1.1085                 1.0943                 1.0942
 Frc consts  --      6.6536                 6.7441                 6.7492
 IR Inten    --      6.9515                 3.6168                 4.3558

                     67                     68                     69
                      A                      A                      A
 Frequencies --   3241.6562              3242.9055              3250.4446
 Red. masses --      1.0965                 1.0964                 1.0990
 Frc consts  --      6.7889                 6.7936                 6.8409
 IR Inten    --     17.1289                18.0559                42.5504

                     70                     71                     72
                      A                      A                      A
 Frequencies --   3251.6723              3252.8170              3258.5827
 Red. masses --      1.1015                 1.1024                 1.0969
 Frc consts  --      6.8621                 6.8723                 6.8623
 IR Inten    --      5.9315                52.2124                23.2997

 - Thermochemistry -
 -------------------
 Temperature   298.150 Kelvin.  Pressure   1.00000 Atm.
 Atom     1 has atomic number  6 and mass  12.00000

 Molecular mass:   184.10005 amu.
 Principal axes and moments of inertia in atomic units:
                           1         2         3
     Eigenvalues --  1136.618243269.789814284.97047
           X            0.99697   0.07746   0.00762
           Y           -0.07783   0.99188   0.10056
           Z            0.00023  -0.10084   0.99490
 This molecule is an asymmetric top.
 Rotational symmetry number  1.
 Warning -- assumption of classical behavior for rotation
           may cause significant error
 Rotational temperatures (Kelvin)      0.07620     0.02649     0.02021
 Rotational constants (GHZ):           1.58782     0.55194     0.42118
 Zero-point vibrational energy     584937.4 (Joules/Mol)
                                  139.80339 (Kcal/Mol)
 Warning -- explicit consideration of  15 degrees of freedom as
           vibrations may cause significant error
 Vibrational temperatures:    124.85   149.15   262.31   289.99   403.36
          (Kelvin)            459.57   576.36   580.97   655.54   670.49
                              696.46   739.30   793.21   815.18   886.24
                              951.66  1070.09  1083.84  1123.16  1138.55
                             1161.27  1170.43  1178.25  1337.16  1346.40
                             1371.44  1459.15  1463.11  1469.00  1530.78
                             1532.42  1534.42  1578.48  1587.39  1591.90
                             1636.34  1686.86  1725.36  1736.78  1753.63
                             1783.53  1813.29  1827.54  1906.10  1924.18
                             1933.48  1963.71  1992.32  2005.63  2075.41
                             2104.49  2109.77  2134.04  2182.14  2216.32
                             2273.93  2397.15  2400.05  2428.52  2456.41
                             4452.51  4461.07  4586.88  4592.21  4653.26
                             4655.27  4664.01  4665.81  4676.66  4678.43
                             4680.07  4688.37

 Zero-point correction=                           0.222791 (Hartree/Particle)
 Thermal correction to Energy=                    0.232531
 Thermal correction to Enthalpy=                  0.233475
 Thermal correction to Gibbs Free Energy=         0.187499
 Sum of electronic and zero-point Energies=           -572.605057
 Sum of electronic and thermal Energies=              -572.595317
 Sum of electronic and thermal Enthalpies=            -572.594373
 Sum of electronic and thermal Free Energies=         -572.640349

                     E (Thermal)             CV                S
                      KCal/Mol        Cal/Mol-Kelvin    Cal/Mol-Kelvin
 Total                  145.915             41.078             96.766
 Electronic               0.000              0.000              0.000
 Translational            0.889              2.981             41.537
 Rotational               0.889              2.981             31.144
 Vibrational            144.138             35.117             24.085
 Vibration     1          0.601              1.958              3.731
 Vibration     2          0.605              1.946              3.384
 Vibration     3          0.630              1.864              2.305
 Vibration     4          0.638              1.838              2.119
 Vibration     5          0.680              1.710              1.532
 Vibration     6          0.705              1.636              1.313
 Vibration     7          0.766              1.469              0.960
 Vibration     8          0.769              1.462              0.949
 Vibration     9          0.814              1.348              0.779
 Vibration    10          0.823              1.325              0.749
 Vibration    11          0.840              1.285              0.699
 Vibration    12          0.869              1.219              0.624
 Vibration    13          0.907              1.137              0.541
 Vibration    14          0.922              1.104              0.511
 Vibration    15          0.976              0.998              0.423

 Optimization completed.
    -- Stationary point found.
 Normal termination of Gaussian 09 at Mon Jun 10 01:51:08 2019.
